                         Program Version 3.0.3 - RELEASE   -
|  1> %MaxCore 12000
|  2> %pal nprocs 16
|  3>     end
|  4> #Optimization of C20
|  5> ! PBE0 D3 RIJCOSX def2-svp def2-svp/J opt
|  6>
|  7> *xyz 0 1
|  8>   C   -0.38290403443123      1.57667174304640     -1.17829960159064
|  9>   C   -1.57329090752674      0.90394730378626     -0.72016678832375
| 10>   C   -1.57329090651487      0.90394730204266      0.72016679310839
| 11>   C   -0.38290402502253      1.57667173313197      1.17829959869212
| 12>   C   0.37485520875547      2.05634974558411      0.00000000082459
| 13>   C   1.58901676884095      1.35968208286067     -0.00000000350760
| 14>   C   1.55489132095235      0.46301076556854      1.17732448074458
| 15>   C   0.38073373196774      0.66268259762833      1.95077490849652
| 16>   C   -0.38073372642997     -0.66268259661363      1.95077488101347
| 17>   C   -1.55489131765902     -0.46301076122699      1.17732446698911
| 18>   C   -1.58901676684655     -1.35968207915876     -0.00000000542138
| 19>   C   -0.37485521706874     -2.05634976379417      0.00000000274087
| 20>   C   0.38290403335707     -1.57667174295455      1.17829959523637
| 21>   C   1.57329091199992     -0.90394729435766      0.72016679312948
| 22>   C   1.57329090465602     -0.90394729255608     -0.72016678009289
| 23>   C   1.55489130780781      0.46301076246853     -1.17732447688685
| 24>   C   0.38073371998840      0.66268259726892     -1.95077490180769
| 25>   C   -0.38073372559812     -0.66268260349195     -1.95077489716769
| 26>   C   -1.55489130931217     -0.46301075927559     -1.17732447786895
| 27>   C   0.38290402808421     -1.57667173995701     -1.17829958830806
| 28> *
| 29>
| 30>                          ****END OF INPUT****
 Total Charge           Charge          ....    0
 Multiplicity           Mult            ....    1
 Number of Electrons    NEL             ....  120
Dispersion correction           -0.041614283
FINAL SINGLE POINT ENERGY      -760.126078447125
Dispersion correction            ...
Dispersion correction           -0.041617004
FINAL SINGLE POINT ENERGY      -760.126074183550
Dispersion correction            ...
                    ***********************HURRAY********************

CARTESIAN COORDINATES (ANGSTROEM)
---------------------------------
  C     -0.382293    1.575069   -1.178180
  C     -1.572435    0.903257   -0.720372
  C     -1.572437    0.903256    0.720375
  C     -0.382295    1.575070    1.178181
  C      0.374379    2.054735   -0.000000
  C      1.589046    1.359369   -0.000001
  C      1.555342    0.463383    1.178552
  C      0.381188    0.662814    1.953594
  C     -0.381192   -0.662815    1.953597
  C     -1.555344   -0.463385    1.178554
  C     -1.589044   -1.359366    0.000000
  C     -0.374378   -2.054734   -0.000000
  C      0.382293   -1.575069    1.178182
  C      1.572437   -0.903259    0.720374
  C      1.572438   -0.903258   -0.720375
  C      1.555344    0.463383   -1.178555
  C      0.381190    0.662815   -1.953597
  C     -0.381190   -0.662814   -1.953595
  C     -1.555342   -0.463383   -1.178552
  C      0.382293   -1.575069   -1.178180

 Multiplicity           Mult            ....    1
 Number of Electrons    NEL             ....  120
 Basis Dimension        Dim             ....  280

ORBITAL ENERGIES
----------------

  NO   OCC          E(Eh)            E(eV)
   0   2.0000     -10.317862      -280.7633
   1   2.0000     -10.317835      -280.7626
   2   2.0000     -10.317555      -280.7549
   3   2.0000     -10.317537      -280.7544
   4   2.0000     -10.314981      -280.6849
   5   2.0000     -10.314870      -280.6819
   6   2.0000     -10.314851      -280.6814
   7   2.0000     -10.314846      -280.6812
   8   2.0000     -10.314821      -280.6806
   9   2.0000     -10.314779      -280.6794
  10   2.0000     -10.314758      -280.6788
  11   2.0000     -10.314655      -280.6760
  12   2.0000     -10.296051      -280.1698
  13   2.0000     -10.296000      -280.1684
  14   2.0000     -10.295939      -280.1668
  15   2.0000     -10.295932      -280.1666
  16   2.0000     -10.295765      -280.1620
  17   2.0000     -10.295750      -280.1616
  18   2.0000     -10.295124      -280.1446
  19   2.0000     -10.295111      -280.1442
  20   2.0000      -1.057549       -28.7774
  21   2.0000      -0.970119       -26.3983
  22   2.0000      -0.969968       -26.3942
  23   2.0000      -0.969053       -26.3693
  24   2.0000      -0.838002       -22.8032
  25   2.0000      -0.835445       -22.7336
  26   2.0000      -0.829304       -22.5665
  27   2.0000      -0.824750       -22.4426
  28   2.0000      -0.818203       -22.2644
  29   2.0000      -0.692733       -18.8502
  30   2.0000      -0.667635       -18.1673
  31   2.0000      -0.667425       -18.1616
  32   2.0000      -0.661700       -18.0058
  33   2.0000      -0.653508       -17.7829
  34   2.0000      -0.649734       -17.6802
  35   2.0000      -0.641753       -17.4630
  36   2.0000      -0.522874       -14.2281
  37   2.0000      -0.522398       -14.2152
  38   2.0000      -0.520803       -14.1718
  39   2.0000      -0.510674       -13.8962
  40   2.0000      -0.503115       -13.6904
  41   2.0000      -0.484993       -13.1973
  42   2.0000      -0.480422       -13.0729
  43   2.0000      -0.473347       -12.8804
  44   2.0000      -0.462772       -12.5927
  45   2.0000      -0.456731       -12.4283
  46   2.0000      -0.435920       -11.8620
  47   2.0000      -0.435582       -11.8528
  48   2.0000      -0.435462       -11.8495
  49   2.0000      -0.404525       -11.0077
  50   2.0000      -0.401389       -10.9224
  51   2.0000      -0.396299       -10.7839
  52   2.0000      -0.391178       -10.6445
  53   2.0000      -0.389052       -10.5867
  54   2.0000      -0.310903        -8.4601
  55   2.0000      -0.304045        -8.2735
  56   2.0000      -0.288815        -7.8590
  57   2.0000      -0.282807        -7.6956
  58   2.0000      -0.269196        -7.3252
  59   2.0000      -0.206476        -5.6185
  60   0.0000      -0.126231        -3.4349
  61   0.0000      -0.123583        -3.3629
  62   0.0000      -0.123449        -3.3592
  63   0.0000      -0.072356        -1.9689
  64   0.0000      -0.068986        -1.8772

MULLIKEN ATOMIC CHARGES
-----------------------
   0 C :   -0.061107
   1 C :    0.047925
   2 C :    0.047919
   3 C :   -0.061113
   4 C :    0.022433
   5 C :    0.017712
   6 C :   -0.052004
   7 C :    0.045147
   8 C :    0.045129
   9 C :   -0.052028
  10 C :    0.017754
  11 C :    0.022365
  12 C :   -0.061072
  13 C :    0.047909
  14 C :    0.047885
  15 C :   -0.052011
  16 C :    0.045121
  17 C :    0.045125
  18 C :   -0.052027
  19 C :   -0.061063
Sum of atomic charges:   -0.0000000

LOEWDIN ATOMIC CHARGES
----------------------
   0 C :    0.027879
   1 C :    0.014397
   2 C :    0.014398
   3 C :    0.027880
   4 C :   -0.034300
   5 C :   -0.035804
   6 C :    0.028753
   7 C :   -0.035967
   8 C :   -0.035968
   9 C :    0.028750
  10 C :   -0.035807
  11 C :   -0.034304
  12 C :    0.027878
  13 C :    0.014397
  14 C :    0.014393
  15 C :    0.028752
  16 C :   -0.035974
  17 C :   -0.035971
  18 C :    0.028747
  19 C :    0.027873

  Mayer bond orders larger than 0.1
B(  0-C ,  1-C ) :   1.2452 B(  0-C ,  4-C ) :   1.1748 B(  0-C , 16-C ) :   1.2982
B(  1-C ,  2-C ) :   1.2714 B(  1-C , 18-C ) :   1.2421 B(  2-C ,  3-C ) :   1.2453
B(  2-C ,  9-C ) :   1.2421 B(  3-C ,  4-C ) :   1.1748 B(  3-C ,  7-C ) :   1.2982
B(  4-C ,  5-C ) :   1.4227 B(  5-C ,  6-C ) :   1.1737 B(  5-C , 15-C ) :   1.1737
B(  6-C ,  7-C ) :   1.2987 B(  6-C , 13-C ) :   1.2421 B(  7-C ,  8-C ) :   1.1626
B(  8-C ,  9-C ) :   1.2987 B(  8-C , 12-C ) :   1.2982 B(  9-C , 10-C ) :   1.1737
B( 10-C , 11-C ) :   1.4227 B( 10-C , 18-C ) :   1.1737 B( 11-C , 12-C ) :   1.1748
B( 11-C , 19-C ) :   1.1748 B( 12-C , 13-C ) :   1.2452 B( 13-C , 14-C ) :   1.2714
B( 14-C , 15-C ) :   1.2421 B( 14-C , 19-C ) :   1.2452 B( 15-C , 16-C ) :   1.2987
B( 16-C , 17-C ) :   1.1626 B( 17-C , 18-C ) :   1.2987 B( 17-C , 19-C ) :   1.2982

Dispersion correction           -0.041616316
FINAL SINGLE POINT ENERGY      -760.126065765209

DIPOLE MOMENT
-------------
                                X             Y             Z
Electronic contribution:      0.00001       0.00007       0.00007
Nuclear contribution   :     -0.00000      -0.00000       0.00000
                        -----------------------------------------
Total Dipole Moment    :      0.00001       0.00007       0.00007
                        -----------------------------------------
Magnitude (a.u.)       :      0.00009
Magnitude (Debye)      :      0.00024

                             ****ORCA TERMINATED NORMALLY****
TOTAL RUN TIME: 0 days 0 hours 3 minutes 30 seconds 716 msec
