                         Program Version 3.0.2 -  RELEASE  -
|  1> % pal nprocs 64
|  2>     end
|  3> #Optimization of C60 Fullerene
|  4> ! PBE0 D3 RIJCOSX def2-svp def2-svp/J opt
|  5>
|  6> *xyz 0 1
|  7>   C   0.00000001364911      1.22948583115968      3.30761242865476
|  8>   C   -1.16891880555305      0.38001492041762      3.30679821798599
|  9>   C   -0.72237819782601     -0.99400777097851      3.30668080861222
| 10>   C   0.72237801510009     -0.99400775349311      3.30668065390240
| 11>   C   1.16891878745112      0.38001487468085      3.30679833135115
| 12>   C   2.28963624784490      0.74406709361717      2.57802663397265
| 13>   C   3.01181907519458     -0.24998062837568      1.81820822233323
| 14>   C   2.58332913433771     -1.56749861395230      1.81778279819825
| 15>   C   1.41481061461941     -1.94737662192856      2.57748786562654
| 16>   C   0.69269992490265     -2.94226395309752      1.81837678597388
| 17>   C   -0.69270003938689     -2.94226394152864      1.81837684247356
| 18>   C   -1.41481062501282     -1.94737643162007      2.57748769874131
| 19>   C   -2.58332935980355     -1.56749858983784      1.81778293801681
| 20>   C   -3.01181908296333     -0.24998047619770      1.81820821780086
| 21>   C   -2.28963634296479      0.74406725649632      2.57802672425484
| 22>   C   -2.28997766590527      1.97289267668860      1.81842353040698
| 23>   C   -3.01268945280754      1.73871558340882      0.58953767828983
| 24>   C   -3.45860502264094      0.36429637309083      0.58916765218989
| 25>   C   -3.45860510602703     -0.36429632873452     -0.58916761838779
| 26>   C   -3.01268946678648     -1.73871550651718     -0.58953767261130
| 27>   C   -2.58418602494809     -2.32791180094723      0.58907186901405
| 28>   C   -1.41521402069412     -3.17701282974270      0.58912076816106
| 29>   C   -0.72245398682378     -3.40176216314998     -0.58942253511375
| 30>   C   0.72245385526569     -3.40176219878947     -0.58942255364510
| 31>   C   1.41521394444338     -3.17701277927504      0.58912070591265
| 32>   C   2.58418597441899     -2.32791197589450      0.58907179072051
| 33>   C   3.01268929286884     -1.73871549232509     -0.58953769920872
| 34>   C   3.45860503250854     -0.36429637841481     -0.58916765471466
| 35>   C   3.45860468762539      0.36429629772434      0.58916761110714
| 36>   C   3.01268934082798      1.73871547295984      0.58953764700872
| 37>   C   2.58418586397445      2.32791184532321     -0.58907180095334
| 38>   C   2.58332902451444      1.56749844189218     -1.81778278700681
| 39>   C   3.01181918091387      0.24998050888468     -1.81820822857732
| 40>   C   2.28963639610217     -0.74406721984559     -2.57802672991141
| 41>   C   2.28997767494227     -1.97289270146188     -1.81842372159101
| 42>   C   1.16909320874674     -2.78730071436448     -1.81832918217198
| 43>   C   0.00000004013700     -2.40778230685279     -2.57821473959590
| 44>   C   -1.16909321864378     -2.78730064755426     -1.81832924461655
| 45>   C   -2.28997766807800     -1.97289257773680     -1.81842349111148
| 46>   C   -2.28963642695471     -0.74406722574752     -2.57802677339253
| 47>   C   -3.01181928761042      0.24998054031029     -1.81820824220638
| 48>   C   -2.58332911677341      1.56749848812636     -1.81778273833230
| 49>   C   -2.58418615100843      2.32791206933357     -0.58907185650086
| 50>   C   -1.41521415572856      3.17701307154828     -0.58912069473664
| 51>   C   -0.69270007950254      2.94226398666910     -1.81837675638506
| 52>   C   -1.41481058779283      1.94737649292166     -2.57748764803977
| 53>   C   -0.72237808242578      0.99400774887328     -3.30668058629642
| 54>   C   -1.16891877043836     -0.38001493682608     -3.30679810868745
| 55>   C   0.00000002359154     -1.22948595386582     -3.30761259996593
| 56>   C   1.16891877614780     -0.38001499612594     -3.30679828494384
| 57>   C   0.72237811838686      0.99400771974105     -3.30668071436965
| 58>   C   1.41481047806832      1.94737654990058     -2.57748774019958
| 59>   C   0.69269986469317      2.94226393853150     -1.81837673264991
| 60>   C   1.41521388776297      3.17701281144533     -0.58912067376100
| 61>   C   0.72245386863565      3.40176221965624      0.58942263149634
| 62>   C   -0.72245398716735      3.40176225357517      0.58942265888516
| 63>   C   -1.16909324639111      2.78730079741302      1.81832933095901
| 64>   C   -0.00000002620076      2.40778237552554      2.57821488444785
| 65>   C   1.16909314794555      2.78730073821521      1.81832929319670
| 66>   C   2.28997750923857      1.97289253705130      1.81842358999010
| 67>
| 68>   **                         ****END OF INPUT****
 Total Charge           Charge          ....    0
 Multiplicity           Mult            ....    1
 Number of Electrons    NEL             ....  360
Dispersion correction           -0.170414125
FINAL SINGLE POINT ENERGY     -2282.245989633118
Dispersion correction            ... done
Dispersion correction           -0.170940756
FINAL SINGLE POINT ENERGY     -2282.248898570502
Dispersion correction            ... done
Dispersion correction           -0.170966419
FINAL SINGLE POINT ENERGY     -2282.248906341162
Dispersion correction            ... done
                    ***********************HURRAY********************

CARTESIAN COORDINATES (ANGSTROEM)
---------------------------------
  C      0.000001    1.231925    3.321216
  C     -1.173550    0.380643    3.321748
  C     -0.725286   -0.998184    3.323177
  C      0.725288   -0.998185    3.323179
  C      1.173551    0.380644    3.321750
  C      2.301089    0.746674    2.588136
  C      3.027000   -0.249797    1.825787
  C      2.595277   -1.575267    1.825971
  C      1.422060   -1.956205    2.588396
  C      0.696741   -2.953865    1.826456
  C     -0.696740   -2.953862    1.826455
  C     -1.422059   -1.956204    2.588395
  C     -2.595278   -1.575270    1.825972
  C     -3.026999   -0.249798    1.825787
  C     -2.301089    0.746673    2.588135
  C     -2.301540    1.979381    1.825265
  C     -3.028611    1.745825    0.592396
  C     -3.477410    0.366701    0.592698
  C     -3.477411   -0.366701   -0.592699
  C     -3.028610   -1.745824   -0.592397
  C     -2.596823   -2.338648    0.593157
  C     -1.421974   -3.188706    0.593019
  C     -0.724886   -3.413189   -0.592245
  C      0.724885   -3.413191   -0.592245
  C      1.421973   -3.188706    0.593020
  C      2.596822   -2.338647    0.593157
  C      3.028610   -1.745823   -0.592396
  C      3.477411   -0.366701   -0.592698
  C      3.477409    0.366701    0.592698
  C      3.028610    1.745825    0.592397
  C      2.596821    2.338647   -0.593156
  C      2.595274    1.575268   -1.825971
  C      3.026999    0.249798   -1.825787
  C      2.301088   -0.746674   -2.588133
  C      2.301539   -1.979381   -1.825263
  C      1.173173   -2.797094   -1.824765
  C      0.000000   -2.416471   -2.586929
  C     -1.173172   -2.797091   -1.824765
  C     -2.301539   -1.979380   -1.825264
  C     -2.301090   -0.746673   -2.588136
  C     -3.026998    0.249799   -1.825787
  C     -2.595276    1.575269   -1.825972
  C     -2.596821    2.338647   -0.593157
  C     -1.421971    3.188704   -0.593020
  C     -0.696740    2.953868   -1.826458
  C     -1.422060    1.956207   -2.588397
  C     -0.725289    0.998185   -3.323179
  C     -1.173551   -0.380643   -3.321748
  C      0.000000   -1.231924   -3.321212
  C      1.173552   -0.380645   -3.321751
  C      0.725286    0.998183   -3.323176
  C      1.422059    1.956205   -2.588397
  C      0.696741    2.953865   -1.826458
  C      1.421972    3.188706   -0.593020
  C      0.724885    3.413188    0.592246
  C     -0.724885    3.413190    0.592247
  C     -1.173173    2.797089    1.824764
  C      0.000001    2.416468    2.586930
  C      1.173172    2.797089    1.824764
  C      2.301539    1.979381    1.825266

 Multiplicity           Mult            ....    1
 Number of Electrons    NEL             ....  360
 Basis Dimension        Dim             ....  840

ORBITAL ENERGIES
----------------

  NO   OCC          E(Eh)            E(eV)
   0   2.0000     -10.290039      -280.0062
   1   2.0000     -10.290034      -280.0061
   2   2.0000     -10.289937      -280.0034
   3   2.0000     -10.289933      -280.0033
   4   2.0000     -10.289915      -280.0028
   5   2.0000     -10.289911      -280.0027
   6   2.0000     -10.289899      -280.0024
   7   2.0000     -10.289896      -280.0023
   8   2.0000     -10.289885      -280.0020
   9   2.0000     -10.289872      -280.0017
  10   2.0000     -10.289851      -280.0011
  11   2.0000     -10.289838      -280.0007
  12   2.0000     -10.289827      -280.0004
  13   2.0000     -10.289824      -280.0004
  14   2.0000     -10.289819      -280.0002
  15   2.0000     -10.289810      -280.0000
  16   2.0000     -10.289760      -279.9986
  17   2.0000     -10.289759      -279.9986
  18   2.0000     -10.289675      -279.9963
  19   2.0000     -10.289664      -279.9960
  20   2.0000     -10.289662      -279.9959
  21   2.0000     -10.289658      -279.9958
  22   2.0000     -10.289655      -279.9957
  23   2.0000     -10.289650      -279.9956
  24   2.0000     -10.289644      -279.9954
  25   2.0000     -10.289643      -279.9954
  26   2.0000     -10.289638      -279.9953
  27   2.0000     -10.289636      -279.9952
  28   2.0000     -10.289631      -279.9951
  29   2.0000     -10.289622      -279.9948
  30   2.0000     -10.289511      -279.9918
  31   2.0000     -10.289499      -279.9915
  32   2.0000     -10.289446      -279.9900
  33   2.0000     -10.289419      -279.9893
  34   2.0000     -10.289410      -279.9891
  35   2.0000     -10.289371      -279.9880
  36   2.0000     -10.289348      -279.9874
  37   2.0000     -10.289336      -279.9871
  38   2.0000     -10.289333      -279.9870
  39   2.0000     -10.289301      -279.9861
  40   2.0000     -10.289289      -279.9858
  41   2.0000     -10.289267      -279.9852
  42   2.0000     -10.289251      -279.9847
  43   2.0000     -10.289237      -279.9844
  44   2.0000     -10.289218      -279.9839
  45   2.0000     -10.289206      -279.9835
  46   2.0000     -10.289194      -279.9832
  47   2.0000     -10.289180      -279.9828
  48   2.0000     -10.289164      -279.9824
  49   2.0000     -10.289155      -279.9821
  50   2.0000     -10.289136      -279.9816
  51   2.0000     -10.289131      -279.9815
  52   2.0000     -10.289085      -279.9802
  53   2.0000     -10.289069      -279.9798
  54   2.0000     -10.289049      -279.9793
  55   2.0000     -10.289032      -279.9788
  56   2.0000     -10.288998      -279.9779
  57   2.0000     -10.288980      -279.9774
  58   2.0000     -10.288967      -279.9770
  59   2.0000     -10.288960      -279.9768
  60   2.0000      -1.006308       -27.3830
  61   2.0000      -0.986154       -26.8346
  62   2.0000      -0.986062       -26.8321
  63   2.0000      -0.986015       -26.8308
  64   2.0000      -0.947445       -25.7813
  65   2.0000      -0.947329       -25.7781
  66   2.0000      -0.947288       -25.7770
  67   2.0000      -0.947262       -25.7763
  68   2.0000      -0.947246       -25.7759
  69   2.0000      -0.907068       -24.6826
  70   2.0000      -0.907018       -24.6812
  71   2.0000      -0.906993       -24.6805
  72   2.0000      -0.872980       -23.7550
  73   2.0000      -0.872940       -23.7539
  74   2.0000      -0.872840       -23.7512
  75   2.0000      -0.872825       -23.7508
  76   2.0000      -0.822086       -22.3701
  77   2.0000      -0.822019       -22.3683
  78   2.0000      -0.822003       -22.3678
  79   2.0000      -0.821958       -22.3666
  80   2.0000      -0.821891       -22.3648
  81   2.0000      -0.803423       -21.8623
  82   2.0000      -0.803385       -21.8612
  83   2.0000      -0.803324       -21.8596
  84   2.0000      -0.803287       -21.8585
  85   2.0000      -0.744244       -20.2519
  86   2.0000      -0.744143       -20.2492
  87   2.0000      -0.744065       -20.2470
  88   2.0000      -0.743942       -20.2437
  89   2.0000      -0.743910       -20.2428
  90   2.0000      -0.735090       -20.0028
  91   2.0000      -0.735047       -20.0016
  92   2.0000      -0.735021       -20.0009
  93   2.0000      -0.692901       -18.8548
  94   2.0000      -0.692855       -18.8535
  95   2.0000      -0.692807       -18.8522
  96   2.0000      -0.652527       -17.7562
  97   2.0000      -0.652412       -17.7530
  98   2.0000      -0.652302       -17.7500
  99   2.0000      -0.652260       -17.7489
 100   2.0000      -0.652240       -17.7483
 101   2.0000      -0.647159       -17.6101
 102   2.0000      -0.646871       -17.6022
 103   2.0000      -0.646759       -17.5992
 104   2.0000      -0.631745       -17.1907
 105   2.0000      -0.584556       -15.9066
 106   2.0000      -0.584421       -15.9029
 107   2.0000      -0.584394       -15.9022
 108   2.0000      -0.584368       -15.9015
 109   2.0000      -0.556092       -15.1320
 110   2.0000      -0.555967       -15.1286
 111   2.0000      -0.555965       -15.1286
 112   2.0000      -0.555870       -15.1260
 113   2.0000      -0.555819       -15.1246
 114   2.0000      -0.544949       -14.8288
 115   2.0000      -0.544850       -14.8261
 116   2.0000      -0.544720       -14.8226
 117   2.0000      -0.519212       -14.1285
 118   2.0000      -0.519195       -14.1280
 119   2.0000      -0.519168       -14.1273
 120   2.0000      -0.512219       -13.9382
 121   2.0000      -0.492481       -13.4011
 122   2.0000      -0.492381       -13.3984
 123   2.0000      -0.492292       -13.3960
 124   2.0000      -0.492283       -13.3957
 125   2.0000      -0.488424       -13.2907
 126   2.0000      -0.488276       -13.2867
 127   2.0000      -0.488211       -13.2849
 128   2.0000      -0.473807       -12.8929
 129   2.0000      -0.473803       -12.8928
 130   2.0000      -0.473685       -12.8896
 131   2.0000      -0.473627       -12.8881
 132   2.0000      -0.473413       -12.8822
 133   2.0000      -0.457974       -12.4621
 134   2.0000      -0.457930       -12.4609
 135   2.0000      -0.457872       -12.4593
 136   2.0000      -0.457837       -12.4584
 137   2.0000      -0.447118       -12.1667
 138   2.0000      -0.447089       -12.1659
 139   2.0000      -0.447033       -12.1644
 140   2.0000      -0.442508       -12.0412
 141   2.0000      -0.442442       -12.0395
 142   2.0000      -0.442416       -12.0387
 143   2.0000      -0.442388       -12.0380
 144   2.0000      -0.442334       -12.0365
 145   2.0000      -0.428851       -11.6696
 146   2.0000      -0.428683       -11.6651
 147   2.0000      -0.428599       -11.6628
 148   2.0000      -0.428484       -11.6596
 149   2.0000      -0.386435       -10.5154
 150   2.0000      -0.386381       -10.5139
 151   2.0000      -0.386377       -10.5139
 152   2.0000      -0.386368       -10.5136
 153   2.0000      -0.386322       -10.5124
 154   2.0000      -0.386289       -10.5115
 155   2.0000      -0.386140       -10.5074
 156   2.0000      -0.386123       -10.5069
 157   2.0000      -0.374879       -10.2010
 158   2.0000      -0.374804       -10.1989
 159   2.0000      -0.374688       -10.1958
 160   2.0000      -0.374635       -10.1943
 161   2.0000      -0.374630       -10.1942
 162   2.0000      -0.366196        -9.9647
 163   2.0000      -0.366170        -9.9640
 164   2.0000      -0.366119        -9.9626
 165   2.0000      -0.366100        -9.9621
 166   2.0000      -0.295994        -8.0544
 167   2.0000      -0.295988        -8.0542
 168   2.0000      -0.295948        -8.0532
 169   2.0000      -0.295886        -8.0515
 170   2.0000      -0.295769        -8.0483
 171   2.0000      -0.294986        -8.0270
 172   2.0000      -0.294954        -8.0261
 173   2.0000      -0.294857        -8.0235
 174   2.0000      -0.294810        -8.0222
 175   2.0000      -0.243961        -6.6385
 176   2.0000      -0.243899        -6.6368
 177   2.0000      -0.243786        -6.6338
 178   2.0000      -0.243645        -6.6299
 179   2.0000      -0.243630        -6.6295
 180   0.0000      -0.133347        -3.6285
 181   0.0000      -0.133309        -3.6275
 182   0.0000      -0.133185        -3.6241
 183   0.0000      -0.087643        -2.3849
 184   0.0000      -0.087278        -2.3750

MULLIKEN ATOMIC CHARGES
-----------------------
   0 C :   -0.007669
   1 C :    0.006753
   2 C :   -0.006418
   3 C :   -0.006427
   4 C :    0.006714
   5 C :    0.001204
   6 C :   -0.001962
   7 C :   -0.001038
   8 C :    0.000352
   9 C :    0.003617
  10 C :    0.003635
  11 C :    0.000316
  12 C :   -0.001056
  13 C :   -0.001952
  14 C :    0.001185
  15 C :    0.003845
  16 C :   -0.003034
  17 C :    0.001095
  18 C :    0.001016
  19 C :   -0.003034
  20 C :    0.006508
  21 C :   -0.006712
  22 C :    0.002183
  23 C :    0.002173
  24 C :   -0.006655
  25 C :    0.006490
  26 C :   -0.003085
  27 C :    0.001095
  28 C :    0.000986
  29 C :   -0.002990
  30 C :    0.006441
  31 C :   -0.001037
  32 C :   -0.001986
  33 C :    0.001115
  34 C :    0.004053
  35 C :   -0.003751
  36 C :    0.002314
  37 C :   -0.003731
  38 C :    0.003989
  39 C :    0.001086
  40 C :   -0.001889
  41 C :   -0.001011
  42 C :    0.006506
  43 C :   -0.006671
  44 C :    0.003629
  45 C :    0.000286
  46 C :   -0.006393
  47 C :    0.006811
  48 C :   -0.007781
  49 C :    0.006806
  50 C :   -0.006359
  51 C :    0.000286
  52 C :    0.003656
  53 C :   -0.006593
  54 C :    0.002065
  55 C :    0.002202
  56 C :   -0.003769
  57 C :    0.002397
  58 C :   -0.003672
  59 C :    0.003869
Sum of atomic charges:   -0.0000000

LOEWDIN ATOMIC CHARGES
----------------------
   0 C :   -0.000524
   1 C :    0.000327
   2 C :   -0.000268
   3 C :   -0.000270
   4 C :    0.000330
   5 C :   -0.000058
   6 C :    0.000009
   7 C :   -0.000095
   8 C :    0.000054
   9 C :   -0.000029
  10 C :   -0.000025
  11 C :    0.000052
  12 C :   -0.000095
  13 C :    0.000011
  14 C :   -0.000058
  15 C :    0.000520
  16 C :   -0.000373
  17 C :    0.000121
  18 C :    0.000119
  19 C :   -0.000374
  20 C :    0.000455
  21 C :   -0.000244
  22 C :    0.000204
  23 C :    0.000203
  24 C :   -0.000243
  25 C :    0.000456
  26 C :   -0.000375
  27 C :    0.000120
  28 C :    0.000120
  29 C :   -0.000374
  30 C :    0.000457
  31 C :   -0.000094
  32 C :    0.000010
  33 C :   -0.000057
  34 C :    0.000522
  35 C :   -0.000507
  36 C :    0.000285
  37 C :   -0.000506
  38 C :    0.000521
  39 C :   -0.000059
  40 C :    0.000010
  41 C :   -0.000095
  42 C :    0.000455
  43 C :   -0.000243
  44 C :   -0.000028
  45 C :    0.000052
  46 C :   -0.000268
  47 C :    0.000331
  48 C :   -0.000526
  49 C :    0.000330
  50 C :   -0.000266
  51 C :    0.000049
  52 C :   -0.000026
  53 C :   -0.000244
  54 C :    0.000202
  55 C :    0.000202
  56 C :   -0.000505
  57 C :    0.000286
  58 C :   -0.000505
  59 C :    0.000521

  Mayer bond orders larger than 0.1
B(  0-C ,  1-C ) :   1.1874 B(  0-C ,  4-C ) :   1.1874 B(  0-C , 57-C ) :   1.4377
B(  1-C ,  2-C ) :   1.1887 B(  1-C , 14-C ) :   1.4333 B(  2-C ,  3-C ) :   1.1929
B(  2-C , 11-C ) :   1.4308 B(  3-C ,  4-C ) :   1.1888 B(  3-C ,  8-C ) :   1.4308
B(  4-C ,  5-C ) :   1.4334 B(  5-C ,  6-C ) :   1.1855 B(  5-C , 59-C ) :   1.1875
B(  6-C ,  7-C ) :   1.4375 B(  6-C , 28-C ) :   1.1904 B(  7-C ,  8-C ) :   1.1893
B(  7-C , 25-C ) :   1.1860 B(  8-C ,  9-C ) :   1.1893 B(  9-C , 10-C ) :   1.4354
B(  9-C , 24-C ) :   1.1864 B( 10-C , 11-C ) :   1.1893 B( 10-C , 21-C ) :   1.1864
B( 11-C , 12-C ) :   1.1893 B( 12-C , 13-C ) :   1.4375 B( 12-C , 20-C ) :   1.1860
B( 13-C , 14-C ) :   1.1855 B( 13-C , 17-C ) :   1.1904 B( 14-C , 15-C ) :   1.1875
B( 15-C , 16-C ) :   1.1900 B( 15-C , 56-C ) :   1.4324 B( 16-C , 17-C ) :   1.1868
B( 16-C , 42-C ) :   1.4339 B( 17-C , 18-C ) :   1.4347 B( 18-C , 19-C ) :   1.1868
B( 18-C , 40-C ) :   1.1904 B( 19-C , 20-C ) :   1.4339 B( 19-C , 38-C ) :   1.1900
B( 20-C , 21-C ) :   1.1893 B( 21-C , 22-C ) :   1.4348 B( 22-C , 23-C ) :   1.1921
B( 22-C , 37-C ) :   1.1853 B( 23-C , 24-C ) :   1.4348 B( 23-C , 35-C ) :   1.1853
B( 24-C , 25-C ) :   1.1893 B( 25-C , 26-C ) :   1.4339 B( 26-C , 27-C ) :   1.1868
B( 26-C , 34-C ) :   1.1900 B( 27-C , 28-C ) :   1.4347 B( 27-C , 32-C ) :   1.1904
B( 28-C , 29-C ) :   1.1868 B( 29-C , 30-C ) :   1.4339 B( 29-C , 59-C ) :   1.1900
B( 30-C , 31-C ) :   1.1860 B( 30-C , 53-C ) :   1.1893 B( 31-C , 32-C ) :   1.4375
B( 31-C , 51-C ) :   1.1894 B( 32-C , 33-C ) :   1.1855 B( 33-C , 34-C ) :   1.1875
B( 33-C , 49-C ) :   1.4333 B( 34-C , 35-C ) :   1.4325 B( 35-C , 36-C ) :   1.1892
B( 36-C , 37-C ) :   1.1892 B( 36-C , 48-C ) :   1.4378 B( 37-C , 38-C ) :   1.4324
B( 38-C , 39-C ) :   1.1875 B( 39-C , 40-C ) :   1.1855 B( 39-C , 47-C ) :   1.4333
B( 40-C , 41-C ) :   1.4375 B( 41-C , 42-C ) :   1.1860 B( 41-C , 45-C ) :   1.1893
B( 42-C , 43-C ) :   1.1893 B( 43-C , 44-C ) :   1.1864 B( 43-C , 55-C ) :   1.4348
B( 44-C , 45-C ) :   1.1893 B( 44-C , 52-C ) :   1.4355 B( 45-C , 46-C ) :   1.4308
B( 46-C , 47-C ) :   1.1887 B( 46-C , 50-C ) :   1.1928 B( 47-C , 48-C ) :   1.1874
B( 48-C , 49-C ) :   1.1874 B( 49-C , 50-C ) :   1.1887 B( 50-C , 51-C ) :   1.4308
B( 51-C , 52-C ) :   1.1893 B( 52-C , 53-C ) :   1.1864 B( 53-C , 54-C ) :   1.4348
B( 54-C , 55-C ) :   1.1921 B( 54-C , 58-C ) :   1.1853 B( 55-C , 56-C ) :   1.1853
B( 56-C , 57-C ) :   1.1892 B( 57-C , 58-C ) :   1.1892 B( 58-C , 59-C ) :   1.4325

Dispersion correction           -0.170956663
FINAL SINGLE POINT ENERGY     -2282.248905045622

DIPOLE MOMENT
-------------
                                X             Y             Z
Electronic contribution:      0.00000       0.00000       0.00001
Nuclear contribution   :     -0.00000      -0.00000       0.00000
                        -----------------------------------------
Total Dipole Moment    :      0.00000       0.00000       0.00001
                        -----------------------------------------
Magnitude (a.u.)       :      0.00001
Magnitude (Debye)      :      0.00002

                             ****ORCA TERMINATED NORMALLY****
TOTAL RUN TIME: 0 days 0 hours 21 minutes 36 seconds 59 msec
