 Gaussian 09, Revision D.01,
 Gaussian 09:  AS64L-G09RevD.01 24-Apr-2013

 ----------------------------------------------------------------------
 #p opt=tight pbe1pbe scrf=(smd,solvent=dichloromethane) geom=conn
 ectivity def2tzvp empiricaldispersion=gd3bj scf=(xqc,conver=8) integra
 l=(grid=ultrafine) cphf=rdfreq
 ----------------------------------------------------------------------

 ---------------------
 -- Compound b: 1-1 --
 ---------------------
 Symbolic Z-matrix:
 Charge =  0 Multiplicity = 1

 SCF Done:  E(RPBE1PBE) =  -328.102017037     A.U. after   11 cycles

 The electronic state is 1-A.
 Alpha  occ. eigenvalues --  -19.18147 -14.36313 -10.25332 -10.24165 -10.20480
 Alpha  occ. eigenvalues --  -10.20150 -10.19664  -1.03766  -0.91065  -0.80022
 Alpha  occ. eigenvalues --   -0.75079  -0.68395  -0.61994  -0.58361  -0.53319
 Alpha  occ. eigenvalues --   -0.48490  -0.46462  -0.45414  -0.42647  -0.41989
 Alpha  occ. eigenvalues --   -0.41009  -0.39529  -0.37210  -0.35600  -0.34690
 Alpha  occ. eigenvalues --   -0.33692  -0.31597  -0.27447  -0.26072
 Alpha virt. eigenvalues --    0.04901   0.07068   0.07660   0.08683   0.10633
 Alpha virt. eigenvalues --    0.11336   0.12481   0.13162   0.14078   0.14422
 Alpha virt. eigenvalues --    0.15689   0.16371   0.16834   0.18255   0.19842

 Mulliken charges:
               1
     1  C   -0.448807
     2  H    0.139232
     3  H    0.129731
     4  H    0.135956
     5  C    0.056379
     6  H    0.096591
     7  C    0.093019
     8  H    0.058199
     9  C   -0.195138
    10  H    0.113894
    11  H    0.098723
    12  O   -0.493737
    13  H    0.317581
    14  N   -0.596137
    15  H    0.250465
    16  H    0.257999
    17  C   -0.405884
    18  H    0.132376
    19  H    0.137519
    20  H    0.122040
 Sum of Mulliken charges =   0.00000

 Dipole moment (field-independent basis, Debye):
    X=             -3.1572    Y=              2.4428    Z=              0.4609  Tot=              4.0184
 Quadrupole moment (field-independent basis, Debye-Ang):
   XX=            -41.1041   YY=            -49.9724   ZZ=            -44.2261
   XY=              2.8718   XZ=             -0.2743   YZ=             -0.7093

 Optimization completed.
    -- Stationary point found.

                         Standard orientation:
 ---------------------------------------------------------------------
 Center     Atomic      Atomic             Coordinates (Angstroms)
 Number     Number       Type             X           Y           Z
 ---------------------------------------------------------------------
      1          6           0       -1.575709    1.542525    0.129341
      2          1           0       -0.932309    2.328993   -0.271482
      3          1           0       -1.568192    1.619795    1.221694
      4          1           0       -2.594344    1.739513   -0.214736
      5          6           0       -1.131561    0.158704   -0.309696
      6          1           0       -1.082799    0.120342   -1.404346
      7          6           0        0.255794   -0.220935    0.215798
      8          1           0        0.237262   -0.103178    1.315109
      9          6           0        1.375395    0.632950   -0.341088
     10          1           0        1.170359    1.681012   -0.106181
     11          1           0        1.367904    0.540422   -1.433568
     12          8           0        0.510038   -1.575327   -0.106612
     13          1           0       -0.372802   -1.983368   -0.064751
     14          7           0       -2.049230   -0.904434    0.104628
     15          1           0       -2.314014   -0.772270    1.076460
     16          1           0       -2.903804   -0.867691   -0.437797
     17          6           0        2.739377    0.249423    0.204858
     18          1           0        2.986491   -0.785081   -0.042158
     19          1           0        3.522733    0.890717   -0.207507
     20          1           0        2.768048    0.348446    1.294485
 ---------------------------------------------------------------------

 Normal termination of Gaussian 09 at Thu Apr  2 12:31:34 2015.
